[Molden Format]
[Title]
Written by molden_convert.py orca
[Atoms] AU
C     1     6            -2.290991       -1.300339        0.000019
C     2     6            -2.271508        1.334260        0.000132
C     3     6            -0.019502       -2.633938       -0.000038
C     4     6             0.019559        2.633919       -0.000113
C     5     6             2.271583       -1.334222        0.000019
C     6     6             2.291066        1.300377       -0.000019
H     7     1            -4.078124       -2.313403        0.000000
H     8     1            -4.043334        2.373931        0.000189
H     9     1            -0.034695       -4.688392       -0.000170
H     10    1             0.034733        4.688335       -0.000019
H     11    1             4.043485       -2.373742        0.000170
H     12    1             4.078124        2.313573        0.000000
[GTO]
    1 0
 s   8 1.00
             8236.0000000               0.3342268
             1235.0000000               0.6230747
              280.7999878               1.0531060
               79.2699966               1.5831631
               25.5900002               1.9450989
                8.9969997               1.6429470
                3.3190000               0.6196591
                0.3643000              -0.0030667
 s   8 1.00
             8236.0000000              -0.1210101
             1235.0000000              -0.2265691
              280.7999878              -0.3857533
               79.2699966              -0.5967017
               25.5900002              -0.7858351
                8.9969997              -0.8165330
                3.3190000              -0.5188701
                0.3643000               0.3477347
 s   1 1.00
                0.9059000               0.6617901
 s   1 1.00
                0.1285000               0.1529634
 p   3 1.00
               18.7099991               2.1868515
                4.1329999               2.0503123
                1.2000000               1.4599445
 p   1 1.00
                0.3827000               0.4290552
 p   1 1.00
                0.1209000               0.1016185
 d   1 1.00
                1.0970000               3.3522136
 d   1 1.00
                0.3180000               0.3838995
 f   1 1.00
                0.7610000               3.0840085

    2 0
 s   8 1.00
             8236.0000000               0.3342268
             1235.0000000               0.6230747
              280.7999878               1.0531060
               79.2699966               1.5831631
               25.5900002               1.9450989
                8.9969997               1.6429470
                3.3190000               0.6196591
                0.3643000              -0.0030667
 s   8 1.00
             8236.0000000              -0.1210101
             1235.0000000              -0.2265691
              280.7999878              -0.3857533
               79.2699966              -0.5967017
               25.5900002              -0.7858351
                8.9969997              -0.8165330
                3.3190000              -0.5188701
                0.3643000               0.3477347
 s   1 1.00
                0.9059000               0.6617901
 s   1 1.00
                0.1285000               0.1529634
 p   3 1.00
               18.7099991               2.1868515
                4.1329999               2.0503123
                1.2000000               1.4599445
 p   1 1.00
                0.3827000               0.4290552
 p   1 1.00
                0.1209000               0.1016185
 d   1 1.00
                1.0970000               3.3522136
 d   1 1.00
                0.3180000               0.3838995
 f   1 1.00
                0.7610000               3.0840085

    3 0
 s   8 1.00
             8236.0000000               0.3342268
             1235.0000000               0.6230747
              280.7999878               1.0531060
               79.2699966               1.5831631
               25.5900002               1.9450989
                8.9969997               1.6429470
                3.3190000               0.6196591
                0.3643000              -0.0030667
 s   8 1.00
             8236.0000000              -0.1210101
             1235.0000000              -0.2265691
              280.7999878              -0.3857533
               79.2699966              -0.5967017
               25.5900002              -0.7858351
                8.9969997              -0.8165330
                3.3190000              -0.5188701
                0.3643000               0.3477347
 s   1 1.00
                0.9059000               0.6617901
 s   1 1.00
                0.1285000               0.1529634
 p   3 1.00
               18.7099991               2.1868515
                4.1329999               2.0503123
                1.2000000               1.4599445
 p   1 1.00
                0.3827000               0.4290552
 p   1 1.00
                0.1209000               0.1016185
 d   1 1.00
                1.0970000               3.3522136
 d   1 1.00
                0.3180000               0.3838995
 f   1 1.00
                0.7610000               3.0840085

    4 0
 s   8 1.00
             8236.0000000               0.3342268
             1235.0000000               0.6230747
              280.7999878               1.0531060
               79.2699966               1.5831631
               25.5900002               1.9450989
                8.9969997               1.6429470
                3.3190000               0.6196591
                0.3643000              -0.0030667
 s   8 1.00
             8236.0000000              -0.1210101
             1235.0000000              -0.2265691
              280.7999878              -0.3857533
               79.2699966              -0.5967017
               25.5900002              -0.7858351
                8.9969997              -0.8165330
                3.3190000              -0.5188701
                0.3643000               0.3477347
 s   1 1.00
                0.9059000               0.6617901
 s   1 1.00
                0.1285000               0.1529634
 p   3 1.00
               18.7099991               2.1868515
                4.1329999               2.0503123
                1.2000000               1.4599445
 p   1 1.00
                0.3827000               0.4290552
 p   1 1.00
                0.1209000               0.1016185
 d   1 1.00
                1.0970000               3.3522136
 d   1 1.00
                0.3180000               0.3838995
 f   1 1.00
                0.7610000               3.0840085

    5 0
 s   8 1.00
             8236.0000000               0.3342268
             1235.0000000               0.6230747
              280.7999878               1.0531060
               79.2699966               1.5831631
               25.5900002               1.9450989
                8.9969997               1.6429470
                3.3190000               0.6196591
                0.3643000              -0.0030667
 s   8 1.00
             8236.0000000              -0.1210101
             1235.0000000              -0.2265691
              280.7999878              -0.3857533
               79.2699966              -0.5967017
               25.5900002              -0.7858351
                8.9969997              -0.8165330
                3.3190000              -0.5188701
                0.3643000               0.3477347
 s   1 1.00
                0.9059000               0.6617901
 s   1 1.00
                0.1285000               0.1529634
 p   3 1.00
               18.7099991               2.1868515
                4.1329999               2.0503123
                1.2000000               1.4599445
 p   1 1.00
                0.3827000               0.4290552
 p   1 1.00
                0.1209000               0.1016185
 d   1 1.00
                1.0970000               3.3522136
 d   1 1.00
                0.3180000               0.3838995
 f   1 1.00
                0.7610000               3.0840085

    6 0
 s   8 1.00
             8236.0000000               0.3342268
             1235.0000000               0.6230747
              280.7999878               1.0531060
               79.2699966               1.5831631
               25.5900002               1.9450989
                8.9969997               1.6429470
                3.3190000               0.6196591
                0.3643000              -0.0030667
 s   8 1.00
             8236.0000000              -0.1210101
             1235.0000000              -0.2265691
              280.7999878              -0.3857533
               79.2699966              -0.5967017
               25.5900002              -0.7858351
                8.9969997              -0.8165330
                3.3190000              -0.5188701
                0.3643000               0.3477347
 s   1 1.00
                0.9059000               0.6617901
 s   1 1.00
                0.1285000               0.1529634
 p   3 1.00
               18.7099991               2.1868515
                4.1329999               2.0503123
                1.2000000               1.4599445
 p   1 1.00
                0.3827000               0.4290552
 p   1 1.00
                0.1209000               0.1016185
 d   1 1.00
                1.0970000               3.3522136
 d   1 1.00
                0.3180000               0.3838995
 f   1 1.00
                0.7610000               3.0840085

    7 0
 s   3 1.00
               33.8699989               0.2551081
                5.0949998               0.4600979
                1.1590000               0.6784140
 s   1 1.00
                0.3258000               0.3073431
 s   1 1.00
                0.1027000               0.1292968
 p   1 1.00
                1.4069999               2.1842771
 p   1 1.00
                0.3880000               0.4364955
 d   1 1.00
                1.0570000               3.1412413

    8 0
 s   3 1.00
               33.8699989               0.2551081
                5.0949998               0.4600979
                1.1590000               0.6784140
 s   1 1.00
                0.3258000               0.3073431
 s   1 1.00
                0.1027000               0.1292968
 p   1 1.00
                1.4069999               2.1842771
 p   1 1.00
                0.3880000               0.4364955
 d   1 1.00
                1.0570000               3.1412413

    9 0
 s   3 1.00
               33.8699989               0.2551081
                5.0949998               0.4600979
                1.1590000               0.6784140
 s   1 1.00
                0.3258000               0.3073431
 s   1 1.00
                0.1027000               0.1292968
 p   1 1.00
                1.4069999               2.1842771
 p   1 1.00
                0.3880000               0.4364955
 d   1 1.00
                1.0570000               3.1412413

    10 0
 s   3 1.00
               33.8699989               0.2551081
                5.0949998               0.4600979
                1.1590000               0.6784140
 s   1 1.00
                0.3258000               0.3073431
 s   1 1.00
                0.1027000               0.1292968
 p   1 1.00
                1.4069999               2.1842771
 p   1 1.00
                0.3880000               0.4364955
 d   1 1.00
                1.0570000               3.1412413

    11 0
 s   3 1.00
               33.8699989               0.2551081
                5.0949998               0.4600979
                1.1590000               0.6784140
 s   1 1.00
                0.3258000               0.3073431
 s   1 1.00
                0.1027000               0.1292968
 p   1 1.00
                1.4069999               2.1842771
 p   1 1.00
                0.3880000               0.4364955
 d   1 1.00
                1.0570000               3.1412413

    12 0
 s   3 1.00
               33.8699989               0.2551081
                5.0949998               0.4600979
                1.1590000               0.6784140
 s   1 1.00
                0.3258000               0.3073431
 s   1 1.00
                0.1027000               0.1292968
 p   1 1.00
                1.4069999               2.1842771
 p   1 1.00
                0.3880000               0.4364955
 d   1 1.00
                1.0570000               3.1412413


[MO]
Ene= -11.2350  
Spin= Alpha
Occup= 2.0000    
     1     -0.40263715
     2     -0.00069111
     3     -0.01718564
     4     -0.00226059
     5     -0.00004472
     6     -0.00003538
     7     -0.00000001
     8     -0.00018980
     9      0.00037996
    10      0.00000002
    11     -0.00028511
    12      0.00006834
    13     -0.00000008
    14      0.00018120
    15      0.00000000
    16     -0.00000001
    17     -0.00006162
    18     -0.00002011
    19      0.00011817
    20      0.00000008
    21     -0.00000004
    22      0.00028065
    23      0.00022109
    24      0.00000001
    25     -0.00006205
    26     -0.00003967
    27      0.00000005
    28     -0.00000006
    29     -0.00001276
    30     -0.00004765
    31     -0.40048721
    32     -0.00066334
    33     -0.01710172
    34     -0.00227338
    35     -0.00003700
    36      0.00003594
    37      0.00000002
    38     -0.00022753
    39     -0.00038701
    40      0.00000012
    41     -0.00045025
    42     -0.00023274
    43      0.00000019
    44      0.00017602
    45     -0.00000001
    46      0.00000003
    47     -0.00006186
    48      0.00000454
    49      0.00010938
    50     -0.00000001
    51     -0.00000006
    52      0.00026950
    53     -0.00001595
    54     -0.00000004
    55     -0.00005758
    56      0.00004022
    57      0.00000004
    58     -0.00000003
    59     -0.00001645
    60      0.00003688
    61     -0.39720222
    62     -0.00079802
    63     -0.01708083
    64      0.00083664
    65      0.00000055
    66     -0.00009139
    67     -0.00000003
    68     -0.00008039
    69      0.00052155
    70      0.00000003
    71      0.00010730
    72      0.00114000
    73      0.00000010
    74      0.00022308
    75     -0.00000001
    76     -0.00000000
    77      0.00004013
    78     -0.00000319
    79     -0.00018633
    80      0.00000011
    81     -0.00000007
    82      0.00083354
    83     -0.00001108
    84     -0.00000000
    85     -0.00000332
    86     -0.00008877
    87      0.00000001
    88      0.00000002
    89      0.00000821
    90      0.00001712
    91     -0.39115834
    92     -0.00078488
    93     -0.01682266
    94      0.00092454
    95     -0.00000089
    96      0.00009234
    97     -0.00000003
    98      0.00008074
    99     -0.00055426
   100      0.00000001
   101     -0.00010749
   102     -0.00119445
   103     -0.00000016
   104      0.00021862
   105      0.00000003
   106      0.00000000
   107      0.00004061
   108     -0.00000315
   109     -0.00018417
   110     -0.00000016
   111      0.00000014
   112      0.00086211
   113     -0.00001347
   114     -0.00000003
   115      0.00000321
   116      0.00008928
   117     -0.00000001
   118     -0.00000002
   119     -0.00000849
   120     -0.00001487
   121     -0.40401813
   122     -0.00067442
   123     -0.01725285
   124     -0.00220509
   125      0.00003802
   126     -0.00003279
   127      0.00000001
   128      0.00021761
   129      0.00037620
   130     -0.00000017
   131      0.00041639
   132      0.00025194
   133     -0.00000007
   134      0.00017853
   135     -0.00000008
   136      0.00000003
   137     -0.00006037
   138      0.00000555
   139      0.00010831
   140     -0.00000016
   141      0.00000029
   142      0.00027121
   143      0.00001023
   144      0.00000013
   145      0.00005907
   146     -0.00003935
   147     -0.00000010
   148      0.00000017
   149      0.00001609
   150     -0.00003774
   151     -0.40036562
   152     -0.00067952
   153     -0.01708891
   154     -0.00233023
   155      0.00004350
   156      0.00003879
   157      0.00000003
   158      0.00020456
   159     -0.00038834
   160     -0.00000008
   161      0.00032054
   162     -0.00004820
   163      0.00000014
   164      0.00017913
   165     -0.00000001
   166     -0.00000002
   167     -0.00006280
   168     -0.00001840
   169      0.00011826
   170     -0.00000022
   171      0.00000019
   172      0.00027810
   173      0.00024950
   174      0.00000004
   175      0.00006075
   176      0.00004063
   177     -0.00000007
   178      0.00000000
   179      0.00001372
   180      0.00004671
   181     -0.00010849
   182     -0.00001141
   183      0.00036791
   184      0.00008916
   185      0.00005290
   186      0.00000000
   187      0.00015504
   188     -0.00003531
   189      0.00000005
   190     -0.00007678
   191      0.00000011
   192     -0.00000013
   193      0.00006182
   194      0.00008127
   195     -0.00010259
   196      0.00007325
   197      0.00032971
   198      0.00008194
   199     -0.00005426
   200     -0.00000002
   201      0.00019571
   202      0.00007064
   203     -0.00000008
   204     -0.00006691
   205     -0.00000003
   206      0.00000017
   207      0.00006322
   208     -0.00007729
   209     -0.00012132
   210      0.00105233
   211      0.00056504
   212      0.00000270
   213      0.00013293
   214      0.00000002
   215      0.00000008
   216      0.00045165
   217      0.00000004
   218     -0.00005165
   219     -0.00000004
   220      0.00000007
   221     -0.00016203
   222      0.00000175
   223     -0.00012016
   224      0.00109753
   225      0.00058006
   226     -0.00000248
   227     -0.00013223
   228     -0.00000001
   229      0.00000048
   230     -0.00046891
   231     -0.00000011
   232     -0.00005041
   233      0.00000004
   234      0.00000011
   235     -0.00016379
   236      0.00000149
   237     -0.00010385
   238      0.00009479
   239      0.00034080
   240     -0.00008315
   241      0.00005433
   242      0.00000001
   243     -0.00020545
   244     -0.00006958
   245      0.00000033
   246     -0.00006823
   247     -0.00000031
   248      0.00000012
   249      0.00006568
   250     -0.00007865
   251     -0.00010751
   252     -0.00003944
   253      0.00035648
   254     -0.00008814
   255     -0.00005230
   256     -0.00000001
   257     -0.00014149
   258      0.00003571
   259      0.00000009
   260     -0.00007572
   261      0.00000005
   262     -0.00000031
   263      0.00005769
   264      0.00007989
Ene= -11.2344  
Spin= Alpha
Occup= 2.0000    
     1     -0.47802052
     2     -0.00048770
     3     -0.02043536
     4     -0.00359344
     5      0.00013558
     6     -0.00008744
     7     -0.00000003
     8     -0.00114595
     9      0.00001290
    10      0.00000013
    11     -0.00077799
    12      0.00069836
    13     -0.00000003
    14      0.00028522
    15     -0.00000003
    16     -0.00000004
    17     -0.00009306
    18      0.00005839
    19      0.00001682
    20     -0.00000011
    21     -0.00000011
    22     -0.00030611
    23      0.00032315
    24     -0.00000007
    25      0.00000852
    26     -0.00008736
    27      0.00000006
    28      0.00000007
    29      0.00003689
    30     -0.00017352
    31     -0.49976656
    32     -0.00054339
    33     -0.02137703
    34     -0.00364345
    35      0.00013654
    36      0.00006539
    37      0.00000001
    38     -0.00130066
    39      0.00015605
    40      0.00000018
    41     -0.00087871
    42     -0.00056399
    43      0.00000015
    44      0.00029520
    45      0.00000003
    46      0.00000001
    47     -0.00009398
    48     -0.00005586
    49     -0.00001217
    50      0.00000018
    51     -0.00000001
    52     -0.00006573
    53     -0.00045250
    54     -0.00000000
    55      0.00001264
    56      0.00007902
    57     -0.00000002
    58      0.00000007
    59      0.00002971
    60      0.00017460
    61      0.02128988
    62      0.00004049
    63      0.00091481
    64      0.00002248
    65      0.00031471
    66     -0.00000427
    67      0.00000001
    68     -0.00100775
    69      0.00003465
    70     -0.00000012
    71     -0.00212537
    72      0.00004813
    73     -0.00000002
    74     -0.00001522
    75     -0.00000001
    76      0.00000003
    77      0.00000126
    78     -0.00008947
    79      0.00001609
    80     -0.00000006
    81      0.00000001
    82     -0.00013757
    83     -0.00116833
    84      0.00000005
    85      0.00019450
    86     -0.00000043
    87      0.00000005
    88     -0.00000004
    89     -0.00001776
    90     -0.00000472
    91     -0.02211412
    92     -0.00003860
    93     -0.00094990
    94     -0.00001979
    95      0.00031349
    96     -0.00000424
    97     -0.00000002
    98     -0.00100332
    99      0.00004227
   100      0.00000012
   101     -0.00212302
   102      0.00004986
   103      0.00000005
   104      0.00001544
   105     -0.00000002
   106      0.00000002
   107     -0.00000207
   108      0.00008908
   109     -0.00001702
   110      0.00000000
   111      0.00000005
   112      0.00013436
   113      0.00116357
   114     -0.00000005
   115      0.00019355
   116     -0.00000084
   117     -0.00000004
   118     -0.00000000
   119     -0.00001845
   120     -0.00000481
   121      0.50060683
   122      0.00054196
   123      0.02141229
   124      0.00363843
   125      0.00013698
   126      0.00006507
   127      0.00000003
   128     -0.00131250
   129      0.00015883
   130     -0.00000026
   131     -0.00088263
   132     -0.00056346
   133      0.00000007
   134     -0.00029609
   135     -0.00000003
   136      0.00000001
   137      0.00009458
   138      0.00005740
   139      0.00001446
   140     -0.00000032
   141      0.00000022
   142      0.00006354
   143      0.00045588
   144      0.00000011
   145      0.00001340
   146      0.00007868
   147     -0.00000004
   148      0.00000016
   149      0.00002869
   150      0.00017596
   151      0.47596034
   152      0.00048501
   153      0.02034749
   154      0.00359005
   155      0.00013557
   156     -0.00008788
   157     -0.00000002
   158     -0.00114177
   159      0.00001442
   160      0.00000000
   161     -0.00077587
   162      0.00069662
   163     -0.00000010
   164     -0.00028375
   165      0.00000002
   166     -0.00000001
   167      0.00009279
   168     -0.00005787
   169     -0.00001817
   170      0.00000023
   171      0.00000010
   172      0.00030755
   173     -0.00032305
   174     -0.00000004
   175      0.00000847
   176     -0.00008737
   177      0.00000001
   178      0.00000010
   179      0.00003799
   180     -0.00017238
   181     -0.00010019
   182     -0.00053933
   183      0.00023294
   184      0.00008034
   185      0.00004831
   186     -0.00000001
   187     -0.00020924
   188     -0.00005775
   189     -0.00000018
   190     -0.00004234
   191     -0.00000019
   192     -0.00000005
   193      0.00003708
   194      0.00007589
   195     -0.00010146
   196     -0.00091377
   197      0.00016308
   198      0.00008055
   199     -0.00004822
   200      0.00000001
   201     -0.00032103
   202      0.00017585
   203      0.00000008
   204     -0.00003981
   205      0.00000000
   206     -0.00000006
   207      0.00003890
   208     -0.00006671
   209      0.00000049
   210     -0.00005059
   211      0.00002712
   212     -0.00001776
   213     -0.00000565
   214      0.00000002
   215     -0.00025603
   216     -0.00001603
   217      0.00000007
   218     -0.00000102
   219     -0.00000004
   220      0.00000011
   221      0.00000853
   222     -0.00007316
   223     -0.00000053
   224      0.00004053
   225     -0.00002819
   226     -0.00001765
   227     -0.00000540
   228     -0.00000001
   229     -0.00025451
   230     -0.00001083
   231     -0.00000009
   232      0.00000157
   233      0.00000005
   234      0.00000011
   235     -0.00000715
   236      0.00007244
   237      0.00010110
   238      0.00092885
   239     -0.00016054
   240      0.00008033
   241     -0.00004817
   242      0.00000003
   243     -0.00032732
   244      0.00017929
   245      0.00000030
   246      0.00003844
   247     -0.00000037
   248      0.00000013
   249     -0.00003766
   250      0.00006612
   251      0.00009976
   252      0.00053461
   253     -0.00023252
   254      0.00008013
   255      0.00004807
   256     -0.00000001
   257     -0.00020795
   258     -0.00005673
   259     -0.00000018
   260      0.00004237
   261      0.00000014
   262      0.00000005
   263     -0.00003732
   264     -0.00007539
Ene= -11.2344  
Spin= Alpha
Occup= 2.0000    
     1      0.30276674
     2      0.00079525
     3      0.01296492
     4     -0.00581306
     5      0.00010143
     6     -0.00027970
     7     -0.00000001
     8     -0.00013262
     9      0.00123530
    10      0.00000014
    11     -0.00267942
    12     -0.00120849
    13     -0.00000007
    14     -0.00019666
    15     -0.00000005
    16     -0.00000002
    17     -0.00007360
    18      0.00004362
    19      0.00023573
    20     -0.00000029
    21      0.00000002
    22     -0.00084018
    23      0.00109767
    24     -0.00000011
    25      0.00008078
    26     -0.00011500
    27      0.00000009
    28      0.00000011
    29      0.00009783
    30      0.00005271
    31     -0.26969641
    32     -0.00075030
    33     -0.01155251
    34      0.00596676
    35     -0.00012096
    36     -0.00028819
    37      0.00000006
    38      0.00034851
    39      0.00121381
    40     -0.00000023
    41      0.00277882
    42     -0.00125583
    43     -0.00000017
    44      0.00017608
    45      0.00000003
    46     -0.00000008
    47      0.00007498
    48      0.00004865
    49     -0.00022964
    50      0.00000022
    51     -0.00000002
    52      0.00092729
    53      0.00116799
    54      0.00000010
    55     -0.00009062
    56     -0.00012219
    57     -0.00000015
    58      0.00000004
    59     -0.00008990
    60      0.00004212
    61      0.55958486
    62      0.00117487
    63      0.02392454
    64      0.00803131
    65     -0.00001583
    66     -0.00010474
    67     -0.00000005
    68      0.00011580
    69      0.00221768
    70      0.00000014
    71      0.00007532
    72      0.00417474
    73      0.00000019
    74     -0.00039404
    75      0.00000002
    76      0.00000001
    77      0.00002750
    78      0.00000819
    79      0.00012371
    80     -0.00000016
    81      0.00000013
    82      0.00095649
    83      0.00005540
    84      0.00000003
    85     -0.00001015
    86     -0.00004522
    87      0.00000007
    88     -0.00000001
    89     -0.00000626
    90     -0.00021584
    91     -0.56134105
    92     -0.00118187
    93     -0.02400202
    94     -0.00800094
    95     -0.00001563
    96     -0.00010223
    97     -0.00000000
    98      0.00011099
    99      0.00220700
   100     -0.00000024
   101      0.00008592
   102      0.00415665
   103     -0.00000031
   104      0.00039475
   105      0.00000000
   106      0.00000000
   107     -0.00002662
   108     -0.00000825
   109     -0.00012590
   110      0.00000020
   111      0.00000006
   112     -0.00094699
   113     -0.00005242
   114      0.00000005
   115     -0.00001020
   116     -0.00004343
   117      0.00000004
   118      0.00000003
   119     -0.00000546
   120     -0.00021341
   121      0.26444703
   122      0.00074596
   123      0.01132925
   124     -0.00600524
   125     -0.00012146
   126     -0.00028890
   127     -0.00000004
   128      0.00036056
   129      0.00121423
   130      0.00000018
   131      0.00278498
   132     -0.00126789
   133     -0.00000005
   134     -0.00017375
   135      0.00000005
   136      0.00000000
   137     -0.00007519
   138     -0.00004930
   139      0.00023097
   140      0.00000009
   141     -0.00000035
   142     -0.00092699
   143     -0.00117418
   144     -0.00000008
   145     -0.00009087
   146     -0.00012232
   147      0.00000007
   148     -0.00000013
   149     -0.00008854
   150      0.00004084
   151     -0.30828574
   152     -0.00081098
   153     -0.01320037
   154      0.00577808
   155      0.00010095
   156     -0.00027884
   157     -0.00000000
   158     -0.00013887
   159      0.00122429
   160      0.00000025
   161     -0.00267306
   162     -0.00122516
   163      0.00000004
   164      0.00020046
   165      0.00000005
   166      0.00000006
   167      0.00007193
   168     -0.00004491
   169     -0.00023357
   170      0.00000034
   171     -0.00000014
   172      0.00084331
   173     -0.00110118
   174     -0.00000011
   175      0.00008157
   176     -0.00011347
   177      0.00000015
   178      0.00000008
   179      0.00009545
   180      0.00005517
   181      0.00010928
   182     -0.00002855
   183     -0.00075092
   184     -0.00005344
   185     -0.00001583
   186     -0.00000002
   187     -0.00013148
   188      0.00027832
   189     -0.00000025
   190      0.00002774
   191     -0.00000017
   192     -0.00000028
   193     -0.00006529
   194     -0.00005720
   195     -0.00010902
   196      0.00021353
   197      0.00078031
   198      0.00004910
   199     -0.00001341
   200      0.00000003
   201      0.00021897
   202      0.00026414
   203      0.00000025
   204     -0.00002758
   205      0.00000012
   206     -0.00000025
   207      0.00007421
   208     -0.00005730
   209      0.00009548
   210      0.00219940
   211      0.00107796
   212     -0.00000063
   213     -0.00009843
   214      0.00000001
   215      0.00002192
   216      0.00082606
   217      0.00000018
   218      0.00001507
   219     -0.00000001
   220      0.00000008
   221      0.00005759
   222      0.00000206
   223     -0.00009646
   224     -0.00218481
   225     -0.00107182
   226     -0.00000084
   227     -0.00009925
   228     -0.00000003
   229      0.00002081
   230      0.00081997
   231      0.00000023
   232     -0.00001636
   233     -0.00000004