[Molden Format]
[Title]
 Molden file created by orca_2mkl for BaseName=ne

[Atoms] AU
Ne   1  10          0.0000000000         0.0000000000         0.0000000000 
[GTO]
  1 0
s   8 1.0 
    24350.0000000000         0.7147838396
     3650.0000000000         1.3312513918
      829.6000000000         2.2579441104
      234.0000000000         3.4270815468
       75.6100000000         4.3017664512
       26.7300000000         3.7158226573
        9.9270000000         1.4324327273
        1.1020000000        -0.0060063477
s   8 1.0 
    24350.0000000000        -0.2788040004
     3650.0000000000        -0.5208150336
      829.6000000000        -0.8875599801
      234.0000000000        -1.3947670986
       75.6100000000        -1.8762520509
       26.7300000000        -2.0306320369
        9.9270000000        -1.2046701597
        1.1020000000         0.7898307572
s   1 1.0 
        2.8360000000         1.5575419843
s   1 1.0 
        0.3782000000         0.3437171765
s   1 1.0 
        0.1133000000         0.1391818243
p   2 1.0 
       54.7000000000        30.9040548915
       12.4300000000        30.4346990669
p   1 1.0 
        3.6790000000         7.2627705300
p   1 1.0 
        1.1430000000         1.6846041874
p   1 1.0 
        0.3300000000         0.3565188629
p   1 1.0 
        0.0917500000         0.0719776526
d   1 1.0 
        2.8298000000        17.6012143754
d   1 1.0 
        0.7471000000         1.7115235224

[5D]
[7F]
[9G]
[MO]
 Sym=     1a
 Ene= -3.27786425386224E+01
 Spin= Alpha
 Occup= 2.000000
  1      -0.975307273305
  2       0.000646734061
  3      -0.044081475702
  4      -0.003403718771
  5       0.000772184452
  6       0.000000000000
  7       0.000000000000
  8       0.000000000000
  9      -0.000000000000
 10      -0.000000000000
 11      -0.000000000000
 12      -0.000000000000
 13       0.000000000000
 14       0.000000000000
 15       0.000000000000
 16      -0.000000000000
 17      -0.000000000000
 18       0.000000000000
 19       0.000000000000
 20       0.000000000000
 21      -0.000000000000
 22       0.000000000000
 23       0.000000000000
 24       0.000000000000
 25       0.000000000000
 26      -0.000000000000
 27      -0.000000000000
 28      -0.000000000000
 29       0.000000000000
 30      -0.000000000000
 Sym=     1a
 Ene= -1.93339527830034E+00
 Spin= Alpha
 Occup= 2.000000
  1       0.001441323561
  2       0.590840450950
  3       0.177456166356
  4       0.358121072369
  5       0.006137519376
  6      -0.000000000000
  7       0.000000000000
  8       0.000000000000
  9      -0.000000000000
 10       0.000000000000
 11       0.000000000000
 12      -0.000000000000
 13       0.000000000000
 14       0.000000000000
 15      -0.000000000000
 16      -0.000000000000
 17      -0.000000000000
 18      -0.000000000000
 19      -0.000000000000
 20      -0.000000000000
 21       0.000000000000
 22      -0.000000000000
 23      -0.000000000000
 24      -0.000000000000
 25      -0.000000000000
 26      -0.000000000000
 27       0.000000000000
 28       0.000000000000
 29       0.000000000000
 30       0.000000000000
 Sym=     1a
 Ene= -8.51225396498025E-01
 Spin= Alpha
 Occup= 2.000000
  1       0.000000000000
  2       0.000000000000
  3       0.000000000000
  4       0.000000000000
  5      -0.000000000000
  6       0.008754198489
  7      -0.063539073966
  8       0.098764854674
  9       0.023844473749
 10      -0.173066190248
 11       0.269013318294
 12       0.036307378152
 13      -0.263523518311
 14       0.409619787712
 15       0.023797462971
 16      -0.172724980108
 17       0.268482942767
 18       0.001516239797
 19      -0.011005059207
 20       0.017106215202
 21      -0.000000000000
 22      -0.000000000000
 23      -0.000000000000
 24      -0.000000000000
 25       0.000000000000
 26       0.000000000000
 27       0.000000000000
 28      -0.000000000000
 29       0.000000000000
 30      -0.000000000000
 Sym=     1a
 Ene= -8.51225396498014E-01
 Spin= Alpha
 Occup= 2.000000
  1      -0.000000000000
  2      -0.000000000000
  3      -0.000000000000
  4      -0.000000000000
  5       0.000000000000
  6      -0.040636673440
  7      -0.094559650283
  8      -0.057231807073
  9      -0.110685186573
 10      -0.257559284456
 11      -0.155886609497
 12      -0.168537539012
 13      -0.392179019577
 14      -0.237364604451
 15      -0.110466964240
 16      -0.257051491232
 17      -0.155579269916
 18      -0.007038330412
 19      -0.016377867720
 20      -0.009912631455
 21       0.000000000000
 22       0.000000000000
 23       0.000000000000
 24      -0.000000000000
 25       0.000000000000
 26       0.000000000000
 27      -0.000000000000
 28       0.000000000000
 29      -0.000000000000
 30      -0.000000000000
 Sym=     1a
 Ene= -8.51225396498011E-01
 Spin= Alpha
 Occup= 2.000000
  1       0.000000000000
  2       0.000000000000
  3       0.000000000000
  4       0.000000000000
  5      -0.000000000000
  6      -0.110183352696
  7       0.029826247642
  8       0.028954622613
  9      -0.300114746559
 10       0.081240010697
 11       0.078865899559
 12      -0.456977147278
 13       0.123702113146
 14       0.120087114063
 15      -0.299523052752
 16       0.081079841224
 17       0.078710410771
 18      -0.019083915479
 19       0.005165949210
 20       0.005014982564
 21      -0.000000000000
 22       0.000000000000
 23      -0.000000000000
 24       0.000000000000
 25       0.000000000000
 26      -0.000000000000
 27      -0.000000000000
 28      -0.000000000000
 29       0.000000000000
 30      -0.000000000000
 Sym=     1a
 Ene= 2.40492833064767E-01
 Spin= Alpha
 Occup= 0.000000
  1      -0.000000000000
  2       0.000000000000
  3       0.000000000000
  4       0.000000000000
  5      -0.000000000000
  6       0.013171013637
  7       0.007358428645
  8      -0.019382157654
  9       0.046169876657
 10       0.025794350559
 11      -0.067942517788
 12       0.029567975645
 13       0.016519141563
 14      -0.043511545955
 15       0.193448638408
 16       0.108076571957
 17      -0.284674521843
 18      -0.627207833088
 19      -0.350410698536
 20       0.922984475212
 21      -0.000000000000
 22      -0.000000000000
 23      -0.000000000000
 24       0.000000000000
 25       0.000000000000
 26      -0.000000000000
 27       0.000000000000
 28      -0.000000000000
 29       0.000000000000
 30       0.000000000000
 Sym=     1a
 Ene= 2.40492833064769E-01
 Spin= Alpha
 Occup= 0.000000
  1       0.000000000000
  2      -0.000000000000
  3      -0.000000000000
  4      -0.000000000002
  5       0.000000000004
  6      -0.007592685278
  7      -0.019655371437
  8      -0.012621711896
  9      -0.026615517432
 10      -0.068900245645
 11      -0.044244345770
 12      -0.017045030772
 13      -0.044124891195
 14      -0.028334832845
 15      -0.111517205395
 16      -0.288687336321
 17      -0.185380795195
 18       0.361566074429
 19       0.935995001892
 20       0.601049910803
 21       0.000000000000
 22       0.000000000000
 23      -0.000000000000
 24      -0.000000000000
 25       0.000000000000
 26      -0.000000000000
 27      -0.000000000000
 28      -0.000000000000
 29      -0.000000000000
 30       0.000000000000
 Sym=     1a
 Ene= 2.40492833064771E-01
 Spin= Alpha
 Occup= 0.000000
  1      -0.000000000000
  2       0.000000000000
  3       0.000000000000
  4       0.000000000000
  5      -0.000000000001
  6      -0.019291594989
  7       0.012759702544
  8      -0.008265256259
  9      -0.067625058014
 10       0.044728060343
 11      -0.028973158222
 12      -0.043308239296
 13       0.028644611890
 14      -0.018554904153
 15      -0.283344387053
 16       0.187407526339
 17      -0.121395559538
 18       0.918671852707
 19      -0.607621069255
 20       0.393594116142
 21      -0.000000000000
 22      -0.000000000000
 23      -0.000000000000
 24      -0.000000000000
 25      -0.000000000000
 26      -0.000000000000
 27      -0.000000000000
 28       0.000000000000
 29      -0.000000000000
 30      -0.000000000000
 Sym=     1a
 Ene= 2.42505759067499E-01
 Spin= Alpha
 Occup= 0.000000
  1      -0.053331811575
  2       0.052274759086
  3       0.053641227659
  4       0.857614514767
  5      -1.491780066936
  6      -0.000000000000
  7      -0.000000000000
  8      -0.000000000000
  9      -0.000000000000
 10      -0.000000000000
 11      -0.000000000000
 12      -0.000000000000
 13      -0.000000000000
 14      -0.000000000000
 15      -0.000000000000
 16      -0.000000000001
 17      -0.000000000000
 18       0.000000000001
 19       0.000000000003
 20       0.000000000001
 21       0.000000000000
 22      -0.000000000000
 23      -0.000000000000
 24      -0.000000000000
 25       0.000000000000
 26       0.000000000000
 27       0.000000000000
 28       0.000000000000
 29      -0.000000000000
 30      -0.000000000000
 Sym=     1a
 Ene= 1.34576732422556E+00
 Spin= Alpha
 Occup= 0.000000
  1      -0.000000000000
  2      -0.000000000000
  3      -0.000000000000
  4       0.000000000000
  5      -0.000000000000
  6       0.096232101628
  7      -0.017347383326
  8       0.003225658782
  9       0.161995256594
 10      -0.029202249204
 11       0.005430011537
 12       0.767541307425
 13      -0.138361659500
 14       0.025727655501
 15      -1.525883184754
 16       0.275064973838
 17      -0.051146950050
 18       0.634568760486
 19      -0.114391220275
 20       0.021270472747
 21       0.000000000000
 22      -0.000000000000
 23      -0.000000000000
 24       0.000000000000
 25      -0.000000000000
 26      -0.000000000000
 27      -0.000000000000
 28       0.000000000000
 29       0.000000000000
 30      -0.000000000000
 Sym=     1a
 Ene= 1.34576732422557E+00
 Spin= Alpha
 Occup= 0.000000
  1      -0.000000000000
  2      -0.000000000000
  3      -0.000000000000
  4       0.000000000000
  5      -0.000000000000
  6       0.002718279625
  7      -0.003096774805
  8      -0.097749551959
  9       0.004575899288
 10      -0.005213050746
 11      -0.164549703100
 12       0.021680830635
 13      -0.024699684853
 14      -0.779644397679
 15      -0.043101803873
 16       0.049103329583
 17       1.549944302668
 18       0.017924739280
 19      -0.020420592677
 20      -0.644575053185
 21       0.000000000000
 22       0.000000000000
 23      -0.000000000000
 24       0.000000000000
 25      -0.000000000000
 26       0.000000000000
 27      -0.000000000000
 28       0.000000000000
 29      -0.000000000000
 30       0.000000000000
 Sym=     1a
 Ene= 1.34576732422558E+00
 Spin= Alpha
 Occup= 0.000000
  1       0.000000000000
  2       0.000000000000
  3       0.000000000000
  4      -0.000000000000
  5       0.000000000000
  6       0.017434091279
  7       0.096236335363
  8      -0.002564017109
  9       0.029348211693
 10       0.162002383582
 11      -0.004316216756
 12       0.139053236785
 13       0.767575075435
 14      -0.020450442325
 15      -0.276439839450
 16      -1.525950316045
 17       0.040655774175
 18       0.114962985385
 19       0.634596678364
 20      -0.016907509357
 21      -0.000000000000
 22      -0.000000000000
 23       0.000000000000
 24      -0.000000000000
 25       0.000000000000
 26       0.000000000000
 27      -0.000000000000
 28      -0.000000000000
 29       0.000000000000
 30      -0.000000000000
 Sym=     1a
 Ene= 1.98648687428053E+00
 Spin= Alpha
 Occup= 0.000000
  1       0.587296864649
  2       1.577130651276
  3       0.334537756613
  4      -2.571749183401
  5       1.035711669550
  6       0.000000000000
  7      -0.000000000000
  8      -0.000000000000
  9       0.000000000000
 10      -0.000000000000
 11      -0.000000000000
 12       0.000000000000
 13      -0.000000000000
 14      -0.000000000000
 15      -0.000000000000
 16       0.000000000000
 17       0.000000000000
 18       0.000000000000
 19      -0.000000000000
 20      -0.000000000000
 21      -0.000000000000
 22      -0.000000000000
 23      -0.000000000000
 24       0.000000000000
 25      -0.000000000000
 26       0.000000000000
 27      -0.000000000000
 28       0.000000000000
 29       0.000000000000
 30       0.000000000000
 Sym=     1a
 Ene= 2.03245060457195E+00
 Spin= Alpha
 Occup= 0.000000
  1      -0.000000000000
  2      -0.000000000000
  3      -0.000000000000
  4       0.000000000000
  5      -0.000000000000
  6       0.000000000000
  7      -0.000000000000
  8      -0.000000000000
  9       0.000000000000
 10       0.000000000000
 11      -0.000000000000
 12      -0.000000000000
 13      -0.000000000000
 14      -0.000000000000
 15      -0.000000000000
 16       0.000000000000
 17      -0.000000000000
 18       0.000000000000
 19      -0.000000000000
 20       0.000000000000
 21      -0.002425608696
 22      -0.001687975146
 23       0.002703700337
 24       0.000243531170
 25       0.000905469382
 26       0.590821987808
 27       0.411151573116
 28      -0.658558658093
 29      -0.059318541398
 30      -0.220551328363
 Sym=     1a
 Ene= 2.03245060457196E+00
 Spin= Alpha
 Occup= 0.000000
  1      -0.000000000000
  2      -0.000000000000
  3      -0.000000000000
  4       0.000000000000
  5      -0.000000000000
  6       0.000000000000
  7      -0.000000000000
  8      -0.000000000000
  9       0.000000000000
 10      -0.000000000000
 11      -0.000000000000
 12       0.000000000000
 13      -0.000000000000
 14      -0.000000000000
 15      -0.000000000000
 16       0.000000000000
 17       0.000000000000
 18      -0.000000000000
 19      -0.000000000000
 20      -0.000000000000
 21      -0.000837433784
 22       0.003163333616
 23       0.001800233484
 24      -0.000873193585
 25      -0.001486853335
 26       0.203979435725
 27      -0.770514658216
 28      -0.438495099146
 29       0.212689693246
 30       0.362162967441
 Sym=     1a
 Ene= 2.03245060457196E+00
 Spin= Alpha
 Occup= 0.000000
  1       0.000000000000
  2       0.000000000000
  3       0.000000000000
  4      -0.000000000000
  5       0.000000000000
  6       0.000000000000
  7      -0.000000000000
  8      -0.000000000000
  9      -0.000000000000
 10      -0.000000000000
 11      -0.000000000000
 12       0.000000000000
 13       0.000000000000
 14      -0.000000000000
 15      -0.000000000000
 16      -0.000000000000
 17       0.000000000000
 18       0.000000000000
 19      -0.000000000000
 20      -0.000000000000
 21       0.001810038607
 22      -0.001827903090
 23       0.001470263496
 24      -0.000563321783
 25      -0.002797416619
 26      -0.440883399603
 27       0.445234773059
 28      -0.358122067502
 29       0.137212113538
 30       0.681385769427
 Sym=     1a
 Ene= 2.03245060457196E+00
 Spin= Alpha
 Occup= 0.000000
  1      -0.000000000000
  2      -0.000000000000
  3      -0.000000000000
  4       0.000000000000
  5      -0.000000000000
  6      -0.000000000000
  7       0.000000000000
  8       0.000000000000
  9      -0.000000000000
 10       0.000000000000
 11       0.000000000000
 12      -0.000000000000
 13       0.000000000000
 14       0.000000000000
 15      -0.000000000000
 16       0.000000000000
 17      -0.000000000000
 18       0.000000000000
 19      -0.000000000000
 20       0.000000000000
 21      -0.002624174521
 22      -0.000768420186
 23      -0.002051017682
 24      -0.000949287202
 25      -0.002082650753
 26       0.639188014691
 27       0.187169324775
 28       0.499580309944
 29       0.231224332607
 30       0.507285392026
 Sym=     1a
 Ene= 2.03245060457196E+00
 Spin= Alpha
 Occup= 0.000000
  1      -0.000000000000
  2      -0.000000000000
  3      -0.000000000000
  4       0.000000000000
  5      -0.000000000000
  6      -0.000000000000
  7      -0.000000000000
  8      -0.000000000000
  9      -0.000000000000
 10      -0.000000000000
 11      -0.000000000000
 12      -0.000000000000
 13      -0.000000000000
 14      -0.000000000000
 15       0.000000000000
 16       0.000000000000
 17      -0.000000000000
 18      -0.000000000000
 19      -0.000000000000
 20       0.000000000000
 21       0.000417864597
 22      -0.000366573915
 23       0.000053207080
 24      -0.003857688854
 25       0.001314699145
 26      -0.101782118527
 27       0.089288898632
 28      -0.012960009955
 29       0.939643480391
 30      -0.320230201776
 Sym=     1a
 Ene= 5.88955770104928E+00
 Spin= Alpha
 Occup= 0.000000
  1       0.000000000000
  2       0.000000000000
  3      -0.000000000000
  4      -0.000000000000
  5       0.000000000000
  6       0.151771435990
  7      -0.020016019137
  8      -0.013824632899
  9       1.184862299988
 10      -0.156262779726
 11      -0.107927333139
 12      -1.617357208030
 13       0.213301354208
 14       0.147322646857
 15       0.821920844895
 16      -0.108397098920
 17      -0.074867539326
 18      -0.253462055369
 19       0.033427247476
 20       0.023087479185
 21      -0.000000000000
 22      -0.000000000000
 23       0.000000000000
 24      -0.000000000000
 25      -0.000000000000
 26      -0.000000000000
 27       0.000000000000
 28      -0.000000000000
 29       0.000000000000
 30       0.000000000000
 Sym=     1a
 Ene= 5.88955770104930E+00
 Spin= Alpha
 Occup= 0.000000
  1       0.000000000000
  2       0.000000000000
  3      -0.000000000000
  4      -0.000000000000
  5       0.000000000000
  6      -0.001619057355
  7      -0.095470997684
  8       0.120453300220
  9      -0.012639796206
 10      -0.745331195954
 11       0.940365184058
 12       0.017253536974
 13       1.017389769392
 14      -1.283614482994
 15      -0.008768033195
 16      -0.517024844416
 17       0.652316937250
 18       0.002703865864
 19       0.159438929620
 20      -0.201159993318
 21      -0.000000000000
 22      -0.000000000000
 23      -0.000000000000
 24       0.000000000000
 25      -0.000000000000
 26       0.000000000000
 27       0.000000000000
 28       0.000000000000
 29      -0.000000000000
 30       0.000000000000
 Sym=     1a
 Ene= 5.88955770104930E+00
 Spin= Alpha
 Occup= 0.000000
  1       0.000000000000
  2       0.000000000000
  3      -0.000000000000
  4       0.000000000000
  5      -0.000000000000
  6       0.024272209421
  7       0.118789637000
  8       0.094478633938
  9       0.189490372099
 10       0.927377154942
 11       0.737583925307
 12      -0.258657583391
 13      -1.265885602170
 14      -1.006814613086
 15       0.131446571249
 16       0.643307340216
 17       0.511650681329
 18      -0.040535190617
 19      -0.198381634555
 20      -0.157781657596
 21      -0.000000000000
 22      -0.000000000000
 23      -0.000000000000
 24       0.000000000000
 25      -0.000000000000
 26      -0.000000000000
 27      -0.000000000000
 28       0.000000000000
 29      -0.000000000000
 30       0.000000000000
 Sym=     1a
 Ene= 7.89382983307610E+00
 Spin= Alpha
 Occup= 0.000000
  1      -0.000000000000
  2      -0.000000000000
  3       0.000000000000
  4       0.000000000000
  5      -0.000000000000
  6       0.000000000000
  7       0.000000000000
  8      -0.000000000000
  9       0.000000000000
 10      -0.000000000000
 11      -0.000000000000
 12      -0.000000000000
 13      -0.000000000000
 14       0.000000000000
 15       0.000000000000
 16      -0.000000000000
 17      -0.000000000000
 18      -0.000000000000
 19       0.000000000000
 20      -0.000000000000
 21      -0.231675391308
 22       0.317021131495
 23      -0.871142863707
 24      -0.609807453291
 25       0.147783664563
 26       0.111523310312
 27      -0.152606825539
 28       0.419348534890
 29       0.293547560057
 30      -0.071139724375
 Sym=     1a
 Ene= 7.89382983307611E+00
 Spin= Alpha
 Occup= 0.000000
  1      -0.000000000000
  2      -0.000000000000
  3       0.000000000000
  4       0.000000000000
  5      -0.000000000000
  6      -0.000000000000
  7      -0.000000000000
  8      -0.000000000000
  9       0.000000000000
 10      -0.000000000000
 11      -0.000000000000
 12      -0.000000000000
 13       0.000000000000
 14       0.000000000000
 15       0.000000000000
 16      -0.000000000000
 17      -0.000000000000
 18      -0.000000000000
 19      -0.000000000000
 20       0.000000000000
 21       0.472533720097
 22       0.446130458612
 23      -0.483401893092
 24       0.617038372946
 25      -0.519650525525
 26      -0.227467079700
 27      -0.214757144876
 28       0.232698773159
 29      -0.297028361760
 30       0.250148047596
 Sym=     1a
 Ene= 7.89382983307612E+00
 Spin= Alpha
 Occup= 0.000000
  1      -0.000000000000
  2      -0.000000000000
  3       0.000000000000
  4      -0.000000000000
  5       0.000000000000
  6      -0.000000000000
  7      -0.000000000000
  8       0.000000000000
  9      -0.000000000000
 10      -0.000000000000
 11       0.000000000000
 12      -0.000000000000
 13       0.000000000000
 14      -0.000000000000
 15       0.000000000000
 16      -0.000000000000
 17       0.000000000000
 18       0.000000000000
 19       0.000000000000
 20       0.000000000000
 21       0.637117659147
 22      -0.857988263657
 23      -0.380983976572
 24      -0.134867524505
 25       0.037014910506
 26      -0.306694077454
 27       0.413016206993
 28       0.183397097133
 29       0.064922185742
 30      -0.017818143426
 Sym=     1a
 Ene= 7.89382983307614E+00
 Spin= Alpha
 Occup= 0.000000
  1      -0.000000000000
  2      -0.000000000000
  3       0.000000000000
  4       0.000000000000
  5      -0.000000000000
  6      -0.000000000000
  7       0.000000000000
  8      -0.000000000000
  9      -0.000000000000
 10       0.000000000000
 11      -0.000000000000
 12       0.000000000000
 13      -0.000000000000
 14       0.000000000000
 15      -0.000000000000
 16       0.000000000000
 17      -0.000000000000
 18       0.000000000000
 19       0.000000000000
 20       0.000000000000
 21      -0.254028350968
 22      -0.214994700340
 23       0.107878056806
 24      -0.413347764508
 25      -1.006739162597
 26       0.122283521150
 27       0.103493601742
 28      -0.051930064462
 29       0.198976295012
 30       0.484621536191
 Sym=     1a
 Ene= 7.89382983307615E+00
 Spin= Alpha
 Occup= 0.000000
  1      -0.000000000000
  2      -0.000000000000
  3       0.000000000000
  4       0.000000000000
  5       0.000000000000
  6      -0.000000000000
  7       0.000000000000
  8       0.000000000000
  9       0.000000000000
 10      -0.000000000000
 11       0.000000000000
 12       0.000000000000
 13       0.000000000000
 14      -0.000000000000
 15      -0.000000000000
 16      -0.000000000000
 17       0.000000000000
 18       0.000000000000
 19       0.000000000000
 20      -0.000000000000
 21       0.747903735170
 22       0.474204122376
 23       0.396758327654
 24      -0.604254754201
 25       0.000624534692
 26      -0.360023996807
 27      -0.228271173698
 28      -0.190990514115
 29       0.290874615899
 30      -0.000300636921
 Sym=     1a
 Ene= 1.29079671302014E+01
 Spin= Alpha
 Occup= 0.000000
  1      -2.580850151819
  2      -3.343397638620
  3       2.478603605328
  4       1.990325794733
  5      -0.596168055247
  6       0.000000000000
  7      -0.000000000000
  8      -0.000000000000
  9       0.000000000000
 10       0.000000000000
 11       0.000000000000
 12      -0.000000000000
 13      -0.000000000000
 14      -0.000000000000
 15       0.000000000000
 16       0.000000000000
 17       0.000000000000
 18       0.000000000000
 19      -0.000000000000
 20      -0.000000000000
 21      -0.000000000000
 22      -0.000000000000
 23       0.000000000000
 24       0.000000000000
 25       0.000000000000
 26       0.000000000000
 27       0.000000000000
 28      -0.000000000000
 29      -0.000000000000
 30      -0.000000000000
 Sym=     1a
 Ene= 2.59331013631743E+01
 Spin= Alpha
 Occup= 0.000000
  1       0.000000000000
  2       0.000000000000
  3       0.000000000000
  4      -0.000000000000
  5      -0.000000000000
  6      -1.241760471487
  7       0.304833433810
  8      -0.420704625345
  9       1.335262646206
 10      -0.327786804966
 11       0.452382874321
 12      -0.748979832104
 13       0.183863232336
 14      -0.253752061602
 15       0.302902073463
 16      -0.074357882444
 17       0.102622290094
 18      -0.093537823671
 19       0.022962122435
 20      -0.031690326731
 21      -0.000000000000
 22      -0.000000000000
 23      -0.000000000000
 24       0.000000000000
 25       0.000000000000
 26       0.000000000000
 27       0.000000000000
 28      -0.000000000000
 29      -0.000000000000
 30      -0.000000000000
 Sym=     1a
 Ene= 2.59331013631743E+01
 Spin= Alpha
 Occup= 0.000000
  1      -0.000000000000
  2      -0.000000000000
  3       0.000000000000
  4       0.000000000000
  5      -0.000000000000
  6       0.378739472477
  7       1.277269915669
  8      -0.192413219967
  9      -0.407257826170
 10      -1.373445883225
 11       0.206901565284
 12       0.228440373985
 13       0.770397696621
 14      -0.116055893624
 15      -0.092385749224
 16      -0.311563876216
 17       0.046935270230
 18       0.028529226696
 19       0.096212635927
 20      -0.014493869192
 21       0.000000000000
 22      -0.000000000000
 23       0.000000000000
 24       0.000000000000
 25      -0.000000000000
 26      -0.000000000000
 27      -0.000000000000
 28      -0.000000000000
 29      -0.000000000000
 30      -0.000000000000
 Sym=     1a
 Ene= 2.59331013631744E+01
 Spin= Alpha
 Occup= 0.000000
  1       0.000000000000
  2       0.000000000000
  3      -0.000000000000
  4      -0.000000000000
  5       0.000000000000
  6       0.355629324076
  7      -0.295876685228
  8      -1.264068686306
  9      -0.382407528052
 10       0.318155630446
 11       1.359250626686
 12       0.214501264579
 13      -0.178460882847
 14      -0.762435247518
 15      -0.086748501116
 16       0.072173066789
 17       0.308343706273
 18       0.026788413524
 19      -0.022287439363
 20      -0.095218229765
 21      -0.000000000000
 22      -0.000000000000
 23      -0.000000000000
 24      -0.000000000000
 25       0.000000000000
 26       0.000000000000
 27       0.000000000000
 28       0.000000000000
 29       0.000000000000
 30       0.000000000000
