[Molden Format]
[Title]
 Molden file created by orca_2mkl for BaseName=ne

[Atoms] AU
Ne   1  10          0.0000000000         0.0000000000         0.0000000000 
[GTO]
  1 0
s   9 1.0 
    99920.0000000000         0.3475604161
    14960.0000000000         0.6507547564
     3399.0000000000         1.1261642763
      958.9000000000         1.8174556384
      311.2000000000         2.7153054602
      111.7000000000         3.5515844343
       43.3200000000         3.6981505736
       17.8000000000         2.4933400816
        7.5030000000         0.7127813241
s   9 1.0 
    99920.0000000000        -0.2194860674
    14960.0000000000        -0.4173432796
     3399.0000000000        -0.7162724177
      958.9000000000        -1.1777027138
      311.2000000000        -1.7699064398
      111.7000000000        -2.4835833591
       43.3200000000        -2.8393746319
       17.8000000000        -2.6801291662
        7.5030000000        -1.0117296672
s   1 1.0 
        2.3370000000         1.3471133080
s   1 1.0 
        0.9001000000         0.6586097619
s   1 1.0 
        0.3301000000         0.3103803621
p   3 1.0 
       99.6800000000        14.1313646047
       23.1500000000        15.9540685041
        7.1080000000        13.7532120244
p   1 1.0 
        2.4410000000         4.3491041913
p   1 1.0 
        0.8339000000         1.1358802679
p   1 1.0 
        0.2662000000         0.2725524886
d   1 1.0 
        6.4710000000        74.8462478200
d   1 1.0 
        2.2130000000        11.4468912779
d   1 1.0 
        0.7470000000         1.7111226369
f   1 1.0 
        4.6570000000       181.6515527592
f   1 1.0 
        1.5240000000        14.7135088556
g   1 1.0 
        2.9830000000       132.9737431960

[5D]
[7F]
[9G]
[MO]
 Sym=     1a
 Ene= -3.27715011319543E+01
 Spin= Alpha
 Occup= 2.000000
  1       0.000000000000
  2       0.000000000000
  3       0.000000000000
  4       0.000000000000
  5       0.000000000000
  6       0.000000000000
  7       0.000000000000
  8       0.000000000000
  9       0.000000000000
 10       0.000000000000
 11       0.000000000000
 12       0.000000000000
 13       0.000000000000
 14       0.000000000000
 15       0.000000000000
 16       0.000000000000
 17       0.000000000000
 18       0.000000000000
 19       0.000000000000
 20       0.000000000000
 21       0.000000000000
 22       0.000000000000
 23       0.000000000000
 24       0.000000000000
 25       0.000000000000
 26       0.000000000000
 27       0.000000000000
 28       1.000000000000
 29       0.000000000000
 30       0.000000000000
 31       0.000000000000
 32       0.000000000000
 33       0.000000000000
 34       0.000000000000
 35       0.000000000000
 36       0.000000000000
 37       0.000000000000
 38       0.000000000000
 39       0.000000000000
 40       0.000000000000
 41       0.000000000000
 42       0.000000000000
 43       0.000000000000
 44       0.000000000000
 45       0.000000000000
 46       0.000000000000
 47       0.000000000000
 48       0.000000000000
 49       0.000000000000
 50       0.000000000000
 51       0.000000000000
 52       0.000000000000
 53       0.000000000000
 54       0.000000000000
 55       0.000000000000
 Sym=     1a
 Ene= -1.92933655977174E+00
 Spin= Alpha
 Occup= 2.000000
  1       0.000000000000
  2       0.000000000000
  3       0.000000000000
  4       0.000000000000
  5       0.000000000000
  6       0.000000000000
  7       0.000000000000
  8       0.000000000000
  9       0.000000000000
 10       0.000000000000
 11       0.000000000000
 12       0.000000000000
 13       0.000000000000
 14       0.000000000000
 15       0.000000000000
 16       0.000000000000
 17       0.000000000000
 18       0.000000000000
 19       0.000000000000
 20       0.000000000000
 21       0.000000000000
 22       0.000000000000
 23       0.000000000000
 24       0.000000000000
 25       0.000000000000
 26       0.000000000000
 27       0.000000000000
 28       0.000000000000
 29       0.000000000000
 30       0.000000000000
 31       0.000000000000
 32       0.000000000000
 33       0.000000000000
 34       0.000000000000
 35       0.000000000000
 36       0.000000000000
 37       0.000000000000
 38       0.000000000000
 39       0.000000000000
 40       0.000000000000
 41       1.000000000000
 42       0.000000000000
 43       0.000000000000
 44       0.000000000000
 45       0.000000000000
 46       0.000000000000
 47       0.000000000000
 48       0.000000000000
 49       0.000000000000
 50       0.000000000000
 51       0.000000000000
 52       0.000000000000
 53       0.000000000000
 54       0.000000000000
 55       0.000000000000
 Sym=     1a
 Ene= -8.48959517304660E-01
 Spin= Alpha
 Occup= 2.000000
  1       0.000000000000
  2       0.000000000000
  3       0.000000000000
  4       0.000000000000
  5       0.000000000000
  6       0.000000000000
  7       0.000000000000
  8       0.000000000000
  9       0.000000000000
 10       0.000000000000
 11       0.000000000000
 12       0.000000000000
 13       0.000000000000
 14       0.000000000000
 15       0.000000000000
 16       0.000000000000
 17       0.000000000000
 18       0.000000000000
 19       0.000000000000
 20       0.000000000000
 21       0.000000000000
 22       0.000000000000
 23       0.000000000000
 24       0.000000000000
 25       0.000000000000
 26       0.000000000000
 27       0.000000000000
 28       0.000000000000
 29       0.000000000000
 30       0.000000000000
 31       0.000000000000
 32       0.000000000000
 33       0.000000000000
 34       0.000000000000
 35       0.000000000000
 36       0.000000000000
 37       0.000000000000
 38       0.000000000000
 39       0.000000000000
 40       0.000000000000
 41       0.000000000000
 42       1.000000000000
 43       0.000000000000
 44       0.000000000000
 45       0.000000000000
 46       0.000000000000
 47       0.000000000000
 48       0.000000000000
 49       0.000000000000
 50       0.000000000000
 51       0.000000000000
 52       0.000000000000
 53       0.000000000000
 54       0.000000000000
 55       0.000000000000
 Sym=     1a
 Ene= -8.48959516805757E-01
 Spin= Alpha
 Occup= 2.000000
  1       0.000000000000
  2       0.000000000000
  3       0.000000000000
  4       0.000000000000
  5       0.000000000000
  6       0.000000000000
  7       0.000000000000
  8       0.000000000000
  9       0.000000000000
 10       0.000000000000
 11       0.000000000000
 12       0.000000000000
 13       0.000000000000
 14       0.000000000000
 15       0.000000000000
 16       0.000000000000
 17       0.000000000000
 18       0.000000000000
 19       0.000000000000
 20       0.000000000000
 21       0.000000000000
 22       0.000000000000
 23       0.000000000000
 24       0.000000000000
 25       0.000000000000
 26       0.000000000000
 27       0.000000000000
 28       0.000000000000
 29       0.000000000000
 30       0.000000000000
 31       0.000000000000
 32       0.000000000000
 33       0.000000000000
 34       0.000000000000
 35       0.000000000000
 36       0.000000000000
 37       0.000000000000
 38       0.000000000000
 39       0.000000000000
 40       0.000000000000
 41       0.000000000000
 42       0.000000000000
 43       1.000000000000
 44       0.000000000000
 45       0.000000000000
 46       0.000000000000
 47       0.000000000000
 48       0.000000000000
 49       0.000000000000
 50       0.000000000000
 51       0.000000000000
 52       0.000000000000
 53       0.000000000000
 54       0.000000000000
 55       0.000000000000
 Sym=     1a
 Ene= -8.48959516284873E-01
 Spin= Alpha
 Occup= 2.000000
  1       0.000000000000
  2       0.000000000000
  3       0.000000000000
  4       0.000000000000
  5       0.000000000000
  6       0.000000000000
  7       0.000000000000
  8       0.000000000000
  9       0.000000000000
 10       0.000000000000
 11       0.000000000000
 12       0.000000000000
 13       0.000000000000
 14       0.000000000000
 15       0.000000000000
 16       0.000000000000
 17       0.000000000000
 18       0.000000000000
 19       0.000000000000
 20       0.000000000000
 21       0.000000000000
 22       0.000000000000
 23       0.000000000000
 24       0.000000000000
 25       0.000000000000
 26       0.000000000000
 27       0.000000000000
 28       0.000000000000
 29       0.000000000000
 30       0.000000000000
 31       0.000000000000
 32       0.000000000000
 33       0.000000000000
 34       0.000000000000
 35       0.000000000000
 36       0.000000000000
 37       0.000000000000
 38       0.000000000000
 39       0.000000000000
 40       0.000000000000
 41       0.000000000000
 42       0.000000000000
 43       0.000000000000
 44       1.000000000000
 45       0.000000000000
 46       0.000000000000
 47       0.000000000000
 48       0.000000000000
 49       0.000000000000
 50       0.000000000000
 51       0.000000000000
 52       0.000000000000
 53       0.000000000000
 54       0.000000000000
 55       0.000000000000
 Sym=     1a
 Ene= 8.08904413767420E-01
 Spin= Alpha
 Occup= 0.000000
  1       0.000000000000
  2       0.000000000000
  3       0.000000000000
  4       0.000000000000
  5       0.000000000000
  6       0.000000000000
  7       0.000000000000
  8       0.000000000000
  9       0.000000000000
 10       0.000000000000
 11       0.000000000000
 12       0.000000000000
 13       0.000000000000
 14       0.000000000000
 15       0.000000000000
 16       0.000000000000
 17       0.000000000000
 18       0.000000000000
 19       0.000000000000
 20       0.000000000000
 21       0.000000000000
 22       0.000000000000
 23       0.000000000000
 24       0.000000000000
 25       0.000000000000
 26       0.000000000000
 27       0.000000000000
 28       0.000000000000
 29       0.000000000000
 30       0.000000000000
 31       0.000000000000
 32       0.000000000000
 33       0.000000000000
 34       0.000000000000
 35       0.000000000000
 36       0.000000000000
 37       0.000000000000
 38       0.000000000000
 39       0.000000000000
 40       0.000000000000
 41       0.000000000000
 42       0.000000000000
 43       0.000000000000
 44       0.000000000000
 45       1.000000000000
 46       0.000000000000
 47       0.000000000000
 48       0.000000000000
 49       0.000000000000
 50       0.000000000000
 51       0.000000000000
 52       0.000000000000
 53       0.000000000000
 54       0.000000000000
 55       0.000000000000
 Sym=     1a
 Ene= 8.08904431908593E-01
 Spin= Alpha
 Occup= 0.000000
  1       0.000000000000
  2       0.000000000000
  3       0.000000000000
  4       0.000000000000
  5       0.000000000000
  6       0.000000000000
  7       0.000000000000
  8       0.000000000000
  9       0.000000000000
 10       0.000000000000
 11       0.000000000000
 12       0.000000000000
 13       0.000000000000
 14       0.000000000000
 15       0.000000000000
 16       0.000000000000
 17       0.000000000000
 18       0.000000000000
 19       0.000000000000
 20       0.000000000000
 21       0.000000000000
 22       0.000000000000
 23       0.000000000000
 24       0.000000000000
 25       0.000000000000
 26       0.000000000000
 27       0.000000000000
 28       0.000000000000
 29       0.000000000000
 30       0.000000000000
 31       0.000000000000
 32       0.000000000000
 33       0.000000000000
 34       0.000000000000
 35       0.000000000000
 36       0.000000000000
 37       0.000000000000
 38       0.000000000000
 39       0.000000000000
 40       0.000000000000
 41       0.000000000000
 42       0.000000000000
 43       0.000000000000
 44       0.000000000000
 45       0.000000000000
 46       1.000000000000
 47       0.000000000000
 48       0.000000000000
 49       0.000000000000
 50       0.000000000000
 51       0.000000000000
 52       0.000000000000
 53       0.000000000000
 54       0.000000000000
 55       0.000000000000
 Sym=     1a
 Ene= 8.08904432270567E-01
 Spin= Alpha
 Occup= 0.000000
  1       0.000000000399
  2      -0.000000000429
  3       0.000000000967
  4      -0.000000009250
  5       0.000000009355
  6      -0.103555534218
  7       0.015316020146
  8       0.089011322867
  9      -0.083990112477
 10       0.012422264632
 11       0.072193833705
 12      -0.537326356908
 13       0.079471381019
 14       0.461859718178
 15       0.955514640881
 16      -0.141322061102
 17      -0.821314117855
 18      -0.000000003379
 19      -0.000000000417
 20       0.000000002226
 21       0.000000002592
 22      -0.000000001877
 23       0.000000004496
 24      -0.000000000587
 25       0.000000004807
 26      -0.000000003571
 27      -0.000000004046
 28      -0.000000036809
 29      -0.000000005015
 30       0.000000027755
 31       0.000000028157
 32      -0.000000023403
 33       0.000000000269
 34       0.000000000388
 35       0.000000000498
 36      -0.000000000414
 37       0.000000000010
 38       0.000000000088
 39       0.000000000430
 40      -0.000000000156
 41      -0.000000000330
 42      -0.000000000576
 43       0.000000000460
 44      -0.000000000014
 45       0.000000000042
 46      -0.000000000447
 47       0.000000000068
 48      -0.000000000177
 49       0.000000000044
 50       0.000000000067
 51       0.000000000284
 52      -0.000000000010
 53       0.000000000328
 54       0.000000000066
 55      -0.000000000109
 Sym=     1a
 Ene= 9.35596945702014E-01
 Spin= Alpha
 Occup= 0.000000
  1       0.076859211620
  2      -0.102566143733
  3       0.156993089662
  4      -1.861602007476
  5       1.914944051770
  6       0.000000032906
  7       0.000000031921
  8       0.000000031602
  9       0.000000027930
 10       0.000000027104
 11       0.000000026786
 12       0.000000158164
 13       0.000000153437
 14       0.000000152038
 15      -0.000000271643
 16      -0.000000263537
 17      -0.000000261370
 18       0.000000000028
 19       0.000000000779
 20       0.000000000722
 21       0.000000000042
 22       0.000000000731
 23      -0.000000000162
 24      -0.000000004595
 25      -0.000000004243
 26      -0.000000000242
 27      -0.000000004293
 28       0.000000000533
 29       0.000000014716
 30       0.000000013639
 31       0.000000000801
 32       0.000000013814
 33      -0.000000000420
 34       0.000000000254
 35       0.000000000269
 36       0.000000000012
 37      -0.000000000373
 38       0.000000000310
 39      -0.000000000335
 40       0.000000002695
 41      -0.000000001622
 42      -0.000000001725
 43      -0.000000000072
 44       0.000000002630
 45      -0.000000001987
 46       0.000000002144
 47      -0.000000000036
 48      -0.000000000006
 49      -0.000000000006
 50       0.000000000001
 51       0.000000000018
 52       0.000000000015
 53      -0.000000000017
 54       0.000000000030
 55      -0.000000000000
 Sym=     1a
 Ene= 1.99781089902474E+00
 Spin= Alpha
 Occup= 0.000000
  1       0.000000000027
  2       0.000000000056
  3       0.000000000121
  4      -0.000000000288
  5       0.000000000311
  6       0.000000000004
  7      -0.000000000571
  8       0.000000000622
  9       0.000000008042
 10      -0.000000001730
 11      -0.000000006033
 12      -0.000000018334
 13       0.000000000492
 14       0.000000017491
 15       0.000000019816
 16      -0.000000002130
 17      -0.000000017208
 18       0.034129978070
 19      -0.003398094068
 20       0.020911907635
 21      -0.026661384804
 22      -0.017392090899
 23      -0.069083787954
 24       0.006878211611
 25      -0.042328588548
 26       0.053966323971
 27       0.035203993479
 28       0.700799119851
 29      -0.069773889900
 30       0.429389272893
 31      -0.547444682396
 32      -0.357116021909
 33      -0.000000001342
 34      -0.000000001136
 35      -0.000000000217
 36       0.000000000306
 37      -0.000000000034
 38      -0.000000001121
 39      -0.000000000504
 40       0.000000002762
 41       0.000000003392
 42       0.000000003179
 43      -0.000000002762
 44       0.000000000075
 45       0.000000001632
 46       0.000000003132
 47       0.000000044797
 48       0.000000003893
 49      -0.000000019713
 50       0.000000054191
 51      -0.000000046943
 52      -0.000000008332
 53      -0.000000052910
 54       0.000000053010
 55       0.000000000425
 Sym=     1a
 Ene= 1.99781089975402E+00
 Spin= Alpha
 Occup= 0.000000
  1       0.000000000321
  2       0.000000000270
  3       0.000000000526
  4      -0.000000002026
  5       0.000000001710
  6       0.000000000795
  7       0.000000000005
  8      -0.000000000308
  9       0.000000003853
 10      -0.000000008510
 11       0.000000004866
 12      -0.000000004097
 13       0.000000019488
 14      -0.000000013076
 15       0.000000006555
 16      -0.000000021032
 17       0.000000013192
 18      -0.026104688360
 19      -0.023575824787
 20       0.009482179025
 21      -0.032774585111
 22       0.015022156222
 23       0.052839493609
 24       0.047720724885
 25      -0.019193239629
 26       0.066340285548
 27      -0.030406918468
 28      -0.536013899138
 29      -0.484088129967
 30       0.194699882341
 31      -0.672968507249
 32       0.308453578156
 33       0.000000001072
 34       0.000000000058
 35       0.000000001088
 36       0.000000000434
 37      -0.000000000018
 38      -0.000000000857
 39      -0.000000001286
 40      -0.000000002107
 41      -0.000000002646
 42      -0.000000002532
 43      -0.000000003649
 44       0.000000000065
 45       0.000000003712
 46       0.000000002184
 47      -0.000000034245
 48       0.000000022410
 49      -0.000000009608
 50       0.000000066524
 51       0.000000040621
 52      -0.000000059572
 53      -0.000000023801
 54      -0.000000040467
 55       0.000000000476
 Sym=     1a
 Ene= 1.99781091434356E+00
 Spin= Alpha
 Occup= 0.000000
  1       0.000000005468
  2       0.000000004321
  3       0.000000014573
  4      -0.000000052232
  5       0.000000043325
  6      -0.000000007020
  7      -0.000000006187
  8      -0.000000006568
  9      -0.000000001610
 10      -0.000000000719
 11      -0.000000001024
 12      -0.000000040967
 13      -0.000000037837
 14      -0.000000039566
 15       0.000000022483
 16       0.000000021526
 17       0.000000022213
 18      -0.000260643175
 19      -0.029248254873
 20      -0.030041691252
 21      -0.000949174546
 22      -0.029463403356
 23       0.000527577829
 24       0.059202509592
 25       0.060808534227
 26       0.001921260422
 27       0.059637999692
 28      -0.005351849513
 29      -0.600561510826
 30      -0.616853332429
 31      -0.019489631146
 32      -0.604979206809
 33      -0.000000001606
 34       0.000000000956
 35       0.000000001003
 36      -0.000000000003
 37      -0.000000000250
 38       0.000000001273
 39      -0.000000001289
 40       0.000000003802
 41      -0.000000002233
 42      -0.000000002352
 43      -0.000000000034
 44      -0.000000004264
 45      -0.000000002914
 46       0.000000003094
 47       0.000000000137
 48       0.000000028439
 49       0.000000029186
 50       0.000000001931
 51      -0.000000081073
 52      -0.000000075231
 53       0.000000077325
 54      -0.000000000796
 55       0.000000000040
 Sym=     1a
 Ene= 1.99781094476482E+00
 Spin= Alpha
 Occup= 0.000000
  1      -0.000000000196
  2      -0.000000000193
  3      -0.000000000278
  4       0.000000000957
  5      -0.000000000827
  6      -0.000000012041
  7       0.000000031800
  8      -0.000000018603
  9      -0.000000011840
 10       0.000000031392
 11      -0.000000018609
 12      -0.000000045283
 13       0.000000119543
 14      -0.000000069262
 15       0.000000015724
 16      -0.000000041292
 17       0.000000023540
 18      -0.017687744024
 19       0.034385214856
 20      -0.012604525424
 21      -0.023626998482
 22      -0.020364583273
 23       0.035802436788
 24      -0.069600424320
 25       0.025513300367
 26       0.047824308077
 27       0.041220729287
 28      -0.363186735254
 29       0.706039951123
 30      -0.258811775684
 31      -0.485138886598
 32      -0.418150924426
 33       0.000000000212
 34      -0.000000000827
 35       0.000000000074
 36      -0.000000000831
 37       0.000000000033
 38       0.000000000450
 39      -0.000000000325
 40      -0.000000002690
 41       0.000000003008
 42      -0.000000002239
 43       0.000000002230
 44       0.000000000038
 45      -0.000000000102
 46       0.000000003585
 47      -0.000000023747
 48      -0.000000033227
 49       0.000000011617
 50       0.000000049007
 51      -0.000000055538
 52       0.000000087696
 53       0.000000032364
 54      -0.000000027991
 55       0.000000000515
 Sym=     1a
 Ene= 1.99781094497598E+00
 Spin= Alpha
 Occup= 0.000000
  1      -0.000000000092
  2      -0.000000000052
  3      -0.000000000244
  4       0.000000000954
  5      -0.000000000750
  6      -0.000000028753
  7       0.000000004415
  8       0.000000025903
  9      -0.000000028679
 10       0.000000004181
 11       0.000000025881
 12      -0.000000107260
 13       0.000000017031
 14       0.000000096617
 15       0.000000036559
 16      -0.000000006161
 17      -0.000000032862
 18       0.021628458844
 19       0.004674897374
 20      -0.032224645257
 21      -0.016819207953
 22       0.028566873201
 23      -0.043778987880
 24      -0.009462638041
 25       0.065227132907
 26       0.034044399850
 27      -0.057823297132
 28       0.444102387785
 29       0.095990800908
 30      -0.661676451824
 31      -0.345352873566
 32       0.586570531612
 33      -0.000000000163
 34       0.000000000190
 35       0.000000000865
 36      -0.000000000638
 37       0.000000000056
 38      -0.000000000434
 39       0.000000000634
 40       0.000000003184
 41       0.000000001454
 42      -0.000000002681
 43       0.000000001792
 44      -0.000000000060
 45       0.000000003781
 46      -0.000000001495
 47       0.000000029005
 48      -0.000000003937
 49       0.000000031211
 50       0.000000034937
 51       0.000000077850
 52       0.000000012146
 53       0.000000082067
 54       0.000000034348
 55       0.000000000326
 Sym=     1a
 Ene= 3.93283332824296E+00
 Spin= Alpha
 Occup= 0.000000
  1      -0.000000005266
  2      -0.000000007801
  3      -0.000000009195
  4       0.000000007014
  5      -0.000000001515
  6      -0.128093902969
  7      -0.121147725241
  8      -0.128105680555
  9      -0.678437169069
 10      -0.641647399714
 11      -0.678499548089
 12       1.035511170784
 13       0.979358267229
 14       1.035606381260
 15      -0.425845460508
 16      -0.402753040247
 17      -0.425884614943
 18      -0.000000000001
 19       0.000000000913
 20       0.000000000863
 21       0.000000000040
 22       0.000000000872
 23       0.000000000174
 24       0.000000003354
 25       0.000000003341
 26      -0.000000000019
 27       0.000000003688
 28      -0.000000000301
 29      -0.000000010536
 30      -0.000000010380
 31      -0.000000000173
 32      -0.000000011092
 33       0.000000001493
 34      -0.000000001068
 35      -0.000000000969
 36      -0.000000000184
 37      -0.000000002931
 38      -0.000000001093
 39       0.000000001264
 40      -0.000000008031
 41       0.000000005727
 42       0.000000005188
 43       0.000000000966
 44       0.000000015576
 45       0.000000005890
 46      -0.000000006772
 47       0.000000000966
 48      -0.000000000159
 49      -0.000000000235
 50       0.000000000014
 51       0.000000000563
 52       0.000000000498
 53      -0.000000000520
 54      -0.000000000777
 55       0.000000000046
 Sym=     1a
 Ene= 3.93283336036817E+00
 Spin= Alpha
 Occup= 0.000000
  1      -0.000000000138
  2      -0.000000000201
  3      -0.000000000202
  4       0.000000000131
  5      -0.000000000030
  6       0.060057667109
  7      -0.178854205700
  8       0.109087740059
  9       0.318089715690
 10      -0.947284271211
 11       0.577772828811
 12      -0.485506206479
 13       1.445857474181
 14      -0.881865336851
 15       0.199660437776
 16      -0.594597005136
 17       0.362659873109
 18      -0.000000000356
 19      -0.000000000800
 20       0.000000000299
 21      -0.000000000463
 22       0.000000000548
 23      -0.000000005334
 24       0.000000010715
 25      -0.000000003777
 26      -0.000000006230
 27      -0.000000006668
 28       0.000000014587
 29      -0.000000015084
 30       0.000000005105
 31       0.000000017427
 32       0.000000008962
 33       0.000000000559
 34       0.000000001282
 35       0.000000000641
 36       0.000000001533
 37      -0.000000000150
 38      -0.000000001378
 39      -0.000000000351
 40      -0.000000002820
 41      -0.000000006670
 42      -0.000000003249
 43      -0.000000007940
 44       0.000000000786
 45       0.000000007109
 46       0.000000001723
 47      -0.000000000247
 48      -0.000000000389
 49       0.000000000972
 50       0.000000000570
 51      -0.000000000869
 52       0.000000001367
 53       0.000000000168
 54      -0.000000000384
 55      -0.000000000659
 Sym=     1a
 Ene= 3.93283336092745E+00
 Spin= Alpha
 Occup= 0.000000
  1       0.000000000082
  2       0.000000000091
  3       0.000000000102
  4      -0.000000000141
  5       0.000000000006
  6       0.165773682322
  7      -0.028814699313
  8      -0.138508789155
  9       0.878004524573
 10      -0.152614311330
 11      -0.733598613856
 12      -1.340114517666
 13       0.232938041348
 14       1.119705109714
 15       0.551111083133
 16      -0.095793855370
 17      -0.460469525326
 18       0.000000000457
 19      -0.000000000114
 20       0.000000000775
 21      -0.000000000390
 22      -0.000000000634
 23       0.000000006006
 24       0.000000001954
 25      -0.000000010401
 26      -0.000000004772
 27       0.000000008514
 28      -0.000000017096
 29      -0.000000002972
 30       0.000000014620
 31       0.000000013785
 32      -0.000000011993
 33      -0.000000000733
 34      -0.000000001059
 35      -0.000000001399
 36       0.000000001217
 37      -0.000000000034
 38      -0.000000000268
 39      -0.000000001228
 40       0.000000003700
 41       0.000000005421
 42       0.000000007255
 43      -0.000000006317
 44       0.000000000179
 45       0.000000001285
 46       0.000000006343
 47       0.000000000386
 48      -0.000000000887
 49       0.000000000156
 50       0.000000000431
 51       0.000000001131
 52      -0.000000000079
 53       0.000000001362
 54       0.000000000387
 55      -0.000000000561
 Sym=     1a
 Ene= 5.81069965043311E+00
 Spin= Alpha
 Occup= 0.000000
  1      -0.569532000459
  2      -1.271236779075
  3      -2.931104710268
  4       3.385647082505
  5      -1.275611982480
  6       0.000000001450
  7       0.000000001374
  8       0.000000001329
  9      -0.000000000825
 10      -0.000000000863
 11      -0.000000000915
 12      -0.000000004459
 13      -0.000000004375
 14      -0.000000004427
 15       0.000000004680
 16       0.000000004501
 17       0.000000004420
 18      -0.000000000072
 19      -0.000000002038
 20      -0.000000001882
 21      -0.000000000107
 22      -0.000000001904
 23       0.000000000210
 24       0.000000006405
 25       0.000000005927
 26       0.000000000308
 27       0.000000005999
 28      -0.000000000186
 29      -0.000000005689
 30      -0.000000005294
 31      -0.000000000275
 32      -0.000000005366
 33      -0.000000018007
 34       0.000000010396
 35       0.000000011624
 36       0.000000000134
 37      -0.000000029313
 38       0.000000013236
 39      -0.000000014268
 40       0.000000188152
 41      -0.000000108561
 42      -0.000000121470
 43      -0.000000001348
 44       0.000000308002
 45      -0.000000138290
 46       0.000000149077
 47      -0.000000000063
 48      -0.000000000015
 49      -0.000000000016
 50       0.000000000003
 51       0.000000000046
 52       0.000000000039
 53      -0.000000000043
 54       0.000000000052
 55      -0.000000000000
 Sym=     1a
 Ene= 5.90423040982997E+00
 Spin= Alpha
 Occup= 0.000000
  1      -0.000000019375
  2      -0.000000041818
  3      -0.000000098811
  4       0.000000118445
  5      -0.000000044053
  6      -0.000000004778
  7      -0.000000004733
  8      -0.000000004772
  9      -0.000000017219
 10      -0.000000017271
 11      -0.000000017188
 12       0.000000013222
 13       0.000000013512
 14       0.000000013179
 15      -0.000000007166
 16      -0.000000007239
 17      -0.000000007148
 18       0.000000000003
 19       0.000000000513
 20       0.000000000516
 21       0.000000000024
 22       0.000000000489
 23      -0.000000000115
 24       0.000000005766
 25       0.000000006045
 26       0.000000000744
 27       0.000000005235
 28       0.000000000149
 29       0.000000000541
 30       0.000000000381
 31      -0.000000000307
 32       0.000000000748
 33      -0.035218724313
 34       0.022153791205
 35       0.023017125046
 36       0.001314487535
 37       0.075916231895
 38       0.026407710846
 39      -0.029628301796
 40       0.376209178249
 41      -0.236648549790
 42      -0.245870737406
 43      -0.014041474878
 44      -0.810942691602
 45      -0.282089230703
 46       0.316491845616
 47       0.000000004010
 48       0.000000000083
 49      -0.000000000062
 50       0.000000000046
 51      -0.000000000050
 52      -0.000000000085
 53       0.000000000086
 54      -0.000000003398
 55       0.000000000087
 Sym=     1a
 Ene= 5.90423042936618E+00
 Spin= Alpha
 Occup= 0.000000
  1       0.000000001389
  2       0.000000003174
  3       0.000000007281
  4      -0.000000008262
  5       0.000000003152
  6      -0.000000001107
  7      -0.000000000146
  8       0.000000001356
  9      -0.000000009242
 10      -0.000000001108
 11       0.000000010705
 12       0.000000013344
 13       0.000000001545
 14      -0.000000015129
 15      -0.000000005179
 16      -0.000000000609
 17       0.000000005929
 18      -0.000000000549
 19      -0.000000000051
 20      -0.000000000419
 21       0.000000000245
 22       0.000000000483
 23      -0.000000007216
 24      -0.000000002122
 25      -0.000000016966
 26       0.000000002947
 27       0.000000019192
 28      -0.000000001139